<?xml version="1.0" encoding="UTF-8"?>

<!-- generated on 2025-07-15 11:38:39 by Eclipse SUMO GUI Version 1.22.0
<sumoConfiguration xmlns:xsi="http://www.w3.org/2001/XMLSchema-instance" xsi:noNamespaceSchemaLocation="http://sumo.dlr.de/xsd/sumoConfiguration.xsd">

    <input>
        <net-file value="./scenario/openmap.net.xml"/>
        <route-files value="./scenario/openmap_modified.rou.xml"/>
    </input>

    <output>
        <tripinfo-output value="./scenario/openmap.tripinfo.xml"/>
    </output>

    <report>
        <no-warnings value="true"/>
        <no-step-log value="true"/>
    </report>

    <traci_server>
        <remote-port value="56814"/>
    </traci_server>

</sumoConfiguration>
-->

<tripinfos xmlns:xsi="http://www.w3.org/2001/XMLSchema-instance" xsi:noNamespaceSchemaLocation="http://sumo.dlr.de/xsd/tripinfo_file.xsd">
    <tripinfo id="random_commuter_01210" depart="26.00" departLane="1172199237#2_0" departPos="5.10" departSpeed="0.00" departDelay="0.40" arrival="58.00" arrivalLane="440897028#2_0" arrivalPos="7.13" arrivalSpeed="16.58" duration="32.00" routeLength="404.90" waitingTime="0.00" waitingCount="0" stopTime="0.00" timeLoss="14.03" rerouteNo="0" devices="tripinfo_random_commuter_01210" vType="commuter" speedFactor="0.98" vaporized=""/>
    <tripinfo id="emergency_01200" depart="3.00" departLane="528055205#0_0" departPos="6.60" departSpeed="20.95" departDelay="0.20" arrival="92.00" arrivalLane="442084733#1_0" arrivalPos="2.59" arrivalSpeed="27.90" duration="89.00" routeLength="1507.99" waitingTime="0.00" waitingCount="0" stopTime="0.00" timeLoss="48.30" rerouteNo="0" devices="tripinfo_emergency_01200" vType="emergency" speedFactor="1.56" vaporized=""/>
    <tripinfo id="random_flexible_01228" depart="53.00" departLane="995559506_0" departPos="0.20" departSpeed="0.00" departDelay="0.00" arrival="97.00" arrivalLane="450175546#1_0" arrivalPos="1.99" arrivalSpeed="20.60" duration="44.00" routeLength="719.96" waitingTime="0.00" waitingCount="0" stopTime="0.00" timeLoss="8.18" rerouteNo="0" devices="tripinfo_random_flexible_01228" vType="flexible" speedFactor="0.75" vaporized=""/>
    <tripinfo id="random_commuter_01224" depart="49.00" departLane="119029072#0_0" departPos="0.20" departSpeed="0.00" departDelay="0.00" arrival="99.00" arrivalLane="29141670#2_0" arrivalPos="2.84" arrivalSpeed="17.30" duration="50.00" routeLength="749.42" waitingTime="0.00" waitingCount="0" stopTime="0.00" timeLoss="8.00" rerouteNo="0" devices="tripinfo_random_commuter_01224" vType="commuter" speedFactor="0.65" vaporized=""/>
    <tripinfo id="random_flexible_01239" depart="69.00" departLane="1373650659#2_0" departPos="0.20" departSpeed="0.00" departDelay="0.00" arrival="99.00" arrivalLane="29140969#5_0" arrivalPos="30.27" arrivalSpeed="11.82" duration="30.00" routeLength="231.11" waitingTime="0.00" waitingCount="0" stopTime="0.00" timeLoss="12.98" rerouteNo="0" devices="tripinfo_random_flexible_01239" vType="flexible" speedFactor="0.92" vaporized=""/>
    <tripinfo id="random_flexible_01201" depart="7.00" departLane="462138645#10_0" departPos="0.20" departSpeed="0.00" departDelay="0.40" arrival="100.00" arrivalLane="444149842#2_0" arrivalPos="14.14" arrivalSpeed="11.57" duration="93.00" routeLength="1050.06" waitingTime="12.00" waitingCount="1" stopTime="0.00" timeLoss="50.76" rerouteNo="0" devices="tripinfo_random_flexible_01201" vType="flexible" speedFactor="1.09" vaporized=""/>
    <tripinfo id="random_commuter_01234" depart="64.00" departLane="1172199237#2_0" departPos="5.10" departSpeed="0.00" departDelay="0.00" arrival="101.00" arrivalLane="440897028#2_0" arrivalPos="7.13" arrivalSpeed="17.20" duration="37.00" routeLength="404.90" waitingTime="4.00" waitingCount="1" stopTime="0.00" timeLoss="24.28" rerouteNo="0" devices="tripinfo_random_commuter_01234" vType="commuter" speedFactor="1.36" vaporized=""/>
    <tripinfo id="random_commuter_01223" depart="39.00" departLane="448314188_0" departPos="5.10" departSpeed="0.00" departDelay="0.00" arrival="106.00" arrivalLane="987053826#0_0" arrivalPos="1.32" arrivalSpeed="5.49" duration="67.00" routeLength="965.16" waitingTime="4.00" waitingCount="1" stopTime="0.00" timeLoss="31.26" rerouteNo="0" devices="tripinfo_random_commuter_01223" vType="commuter" speedFactor="1.02" vaporized=""/>
    <tripinfo id="random_commuter_01215" depart="19.00" departLane="443987648#3_1" departPos="5.10" departSpeed="0.00" departDelay="0.65" arrival="121.00" arrivalLane="444419547#2_0" arrivalPos="0.20" arrivalSpeed="6.78" duration="102.00" routeLength="1680.13" waitingTime="2.00" waitingCount="1" stopTime="0.00" timeLoss="46.04" rerouteNo="0" devices="tripinfo_random_commuter_01215" vType="commuter" speedFactor="1.18" vaporized=""/>
    <tripinfo id="random_commuter_01233" depart="65.00" departLane="448314188_0" departPos="5.10" departSpeed="0.00" departDelay="0.55" arrival="125.00" arrivalLane="987053826#0_0" arrivalPos="1.32" arrivalSpeed="8.16" duration="60.00" routeLength="965.16" waitingTime="0.00" waitingCount="0" stopTime="0.00" timeLoss="31.79" rerouteNo="0" devices="tripinfo_random_commuter_01233" vType="commuter" speedFactor="1.31" vaporized=""/>
    <tripinfo id="random_commuter_01243" depart="73.00" departLane="334124302#1_0" departPos="5.10" departSpeed="0.00" departDelay="0.00" arrival="125.00" arrivalLane="550008867#3_0" arrivalPos="53.08" arrivalSpeed="21.31" duration="52.00" routeLength="785.32" waitingTime="0.00" waitingCount="0" stopTime="0.00" timeLoss="12.76" rerouteNo="0" devices="tripinfo_random_commuter_01243" vType="commuter" speedFactor="0.80" vaporized=""/>
    <tripinfo id="random_commuter_01257" depart="101.00" departLane="1373650659#2_0" departPos="0.20" departSpeed="0.00" departDelay="0.00" arrival="127.00" arrivalLane="29140969#5_0" arrivalPos="30.27" arrivalSpeed="10.45" duration="26.00" routeLength="231.11" waitingTime="0.00" waitingCount="0" stopTime="0.00" timeLoss="14.22" rerouteNo="0" devices="tripinfo_random_commuter_01257" vType="commuter" speedFactor="1.28" vaporized=""/>
    <tripinfo id="random_flexible_01209" depart="21.00" departLane="29141670#2_0" departPos="2.84" departSpeed="0.00" departDelay="0.60" arrival="141.00" arrivalLane="449785730_0" arrivalPos="235.75" arrivalSpeed="23.53" duration="120.00" routeLength="2103.72" waitingTime="0.00" waitingCount="0" stopTime="0.00" timeLoss="39.58" rerouteNo="0" devices="tripinfo_random_flexible_01209" vType="flexible" speedFactor="1.08" vaporized=""/>
    <tripinfo id="random_flexible_01254" depart="93.00" departLane="-541821720#0_0" departPos="5.10" departSpeed="0.00" departDelay="0.00" arrival="144.00" arrivalLane="541821720#3_0" arrivalPos="9.25" arrivalSpeed="10.91" duration="51.00" routeLength="774.97" waitingTime="0.00" waitingCount="0" stopTime="0.00" timeLoss="15.59" rerouteNo="0" devices="tripinfo_random_flexible_01254" vType="flexible" speedFactor="1.01" vaporized=""/>
    <tripinfo id="random_taxi_01229" depart="64.00" departLane="526242004#2_0" departPos="5.10" departSpeed="0.00" departDelay="0.90" arrival="151.00" arrivalLane="-1272406237#1_0" arrivalPos="0.20" arrivalSpeed="16.61" duration="87.00" routeLength="812.34" waitingTime="8.00" waitingCount="2" stopTime="0.00" timeLoss="39.16" rerouteNo="0" devices="tripinfo_random_taxi_01229" vType="taxi" speedFactor="0.79" vaporized=""/>
    <tripinfo id="random_flexible_01219" depart="31.00" departLane="697671217_0" departPos="5.10" departSpeed="0.00" departDelay="0.85" arrival="158.00" arrivalLane="427564710#4_0" arrivalPos="35.72" arrivalSpeed="11.32" duration="127.00" routeLength="1845.36" waitingTime="0.00" waitingCount="0" stopTime="0.00" timeLoss="22.17" rerouteNo="0" devices="tripinfo_random_flexible_01219" vType="flexible" speedFactor="0.82" vaporized=""/>
    <tripinfo id="random_commuter_01207" depart="9.00" departLane="-440881469#11_0" departPos="0.20" departSpeed="0.00" departDelay="0.65" arrival="163.00" arrivalLane="-322629017#1_0" arrivalPos="87.07" arrivalSpeed="9.15" duration="154.00" routeLength="1621.26" waitingTime="6.00" waitingCount="1" stopTime="0.00" timeLoss="30.17" rerouteNo="0" devices="tripinfo_random_commuter_01207" vType="commuter" speedFactor="0.66" vaporized=""/>
    <tripinfo id="random_commuter_01264" depart="128.00" departLane="995559506_0" departPos="0.20" departSpeed="0.00" departDelay="1.00" arrival="170.00" arrivalLane="450175546#1_0" arrivalPos="1.99" arrivalSpeed="20.67" duration="42.00" routeLength="719.96" waitingTime="3.00" waitingCount="1" stopTime="0.00" timeLoss="14.61" rerouteNo="0" devices="tripinfo_random_commuter_01264" vType="commuter" speedFactor="0.97" vaporized=""/>
    <tripinfo id="random_commuter_01280" depart="161.00" departLane="188246609_0" departPos="0.20" departSpeed="0.00" departDelay="0.00" arrival="176.00" arrivalLane="440881470#1_0" arrivalPos="15.11" arrivalSpeed="13.14" duration="15.00" routeLength="141.55" waitingTime="0.00" waitingCount="0" stopTime="0.00" timeLoss="4.05" rerouteNo="0" devices="tripinfo_random_commuter_01280" vType="commuter" speedFactor="0.91" vaporized=""/>
    <tripinfo id="random_commuter_01222" depart="43.00" departLane="462131778#0_0" departPos="5.10" departSpeed="0.00" departDelay="0.40" arrival="185.00" arrivalLane="450614679_0" arrivalPos="13.51" arrivalSpeed="10.33" duration="142.00" routeLength="1589.17" waitingTime="68.00" waitingCount="1" stopTime="0.00" timeLoss="80.59" rerouteNo="0" devices="tripinfo_random_commuter_01222" vType="commuter" speedFactor="0.95" vaporized=""/>
    <tripinfo id="random_flexible_01206" depart="6.00" departLane="312565415#1_1" departPos="5.10" departSpeed="0.00" departDelay="0.00" arrival="186.00" arrivalLane="541821715#0_0" arrivalPos="39.19" arrivalSpeed="27.24" duration="180.00" routeLength="3796.68" waitingTime="0.00" waitingCount="0" stopTime="0.00" timeLoss="57.65" rerouteNo="0" devices="tripinfo_random_flexible_01206" vType="flexible" speedFactor="1.25" vaporized=""/>
    <tripinfo id="random_flexible_01230" depart="61.00" departLane="442084734_0" departPos="5.10" departSpeed="0.00" departDelay="0.05" arrival="188.00" arrivalLane="188246591#1_0" arrivalPos="3.45" arrivalSpeed="9.99" duration="127.00" routeLength="1733.76" waitingTime="12.00" waitingCount="1" stopTime="0.00" timeLoss="73.66" rerouteNo="0" devices="tripinfo_random_flexible_01230" vType="flexible" speedFactor="1.40" vaporized=""/>
    <tripinfo id="random_commuter_01247" depart="90.00" departLane="462131778#0_1" departPos="5.10" departSpeed="0.00" departDelay="0.35" arrival="192.00" arrivalLane="450614679_0" arrivalPos="13.51" arrivalSpeed="8.62" duration="102.00" routeLength="1589.17" waitingTime="7.00" waitingCount="1" stopTime="0.00" timeLoss="24.30" rerouteNo="0" devices="tripinfo_random_commuter_01247" vType="commuter" speedFactor="0.75" vaporized=""/>
    <tripinfo id="random_commuter_01204" depart="4.00" departLane="-519662802#5_0" departPos="1.25" departSpeed="0.00" departDelay="0.00" arrival="193.00" arrivalLane="624720025#1_0" arrivalPos="27.87" arrivalSpeed="17.28" duration="189.00" routeLength="2584.83" waitingTime="11.00" waitingCount="2" stopTime="0.00" timeLoss="75.59" rerouteNo="0" devices="tripinfo_random_commuter_01204" vType="commuter" speedFactor="1.02" vaporized=""/>
    <tripinfo id="random_flexible_01249" depart="93.00" departLane="547065954#1_0" departPos="4.82" departSpeed="0.00" departDelay="0.80" arrival="194.00" arrivalLane="734144752#1_0" arrivalPos="70.28" arrivalSpeed="17.79" duration="101.00" routeLength="1658.62" waitingTime="4.00" waitingCount="2" stopTime="0.00" timeLoss="55.58" rerouteNo="0" devices="tripinfo_random_flexible_01249" vType="flexible" speedFactor="1.51" vaporized=""/>
    <tripinfo id="random_commuter_01212" depart="15.00" departLane="-519662802#5_0" departPos="1.25" departSpeed="0.00" departDelay="0.00" arrival="200.00" arrivalLane="624720025#1_0" arrivalPos="27.87" arrivalSpeed="18.11" duration="185.00" routeLength="2584.83" waitingTime="0.00" waitingCount="0" stopTime="0.00" timeLoss="53.53" rerouteNo="0" devices="tripinfo_random_commuter_01212" vType="commuter" speedFactor="0.88" vaporized=""/>
    <tripinfo id="random_commuter_01240" depart="71.00" departLane="528055205#0_0" departPos="5.10" departSpeed="0.00" departDelay="0.30" arrival="203.00" arrivalLane="442084733#1_0" arrivalPos="2.59" arrivalSpeed="27.10" duration="132.00" routeLength="1509.49" waitingTime="35.00" waitingCount="1" stopTime="0.00" timeLoss="79.30" rerouteNo="0" devices="tripinfo_random_commuter_01240" vType="commuter" speedFactor="1.20" vaporized=""/>
    <tripinfo id="random_flexible_01244" depart="74.00" departLane="29141670#2_0" departPos="2.84" departSpeed="0.00" departDelay="0.00" arrival="203.00" arrivalLane="449785730_0" arrivalPos="235.75" arrivalSpeed="6.84" duration="129.00" routeLength="2103.72" waitingTime="1.00" waitingCount="1" stopTime="0.00" timeLoss="50.14" rerouteNo="0" devices="tripinfo_random_flexible_01244" vType="flexible" speedFactor="1.09" vaporized=""/>
    <tripinfo id="random_taxi_01260" depart="125.00" departLane="1037695960#1_0" departPos="5.10" departSpeed="0.00" departDelay="0.70" arrival="203.00" arrivalLane="624720029#6_0" arrivalPos="0.20" arrivalSpeed="26.93" duration="78.00" routeLength="965.32" waitingTime="2.00" waitingCount="1" stopTime="0.00" timeLoss="33.37" rerouteNo="0" devices="tripinfo_random_taxi_01260" vType="taxi" speedFactor="1.05" vaporized=""/>
    <tripinfo id="random_taxi_01236" depart="71.00" departLane="80912580#3_0" departPos="0.22" departSpeed="0.00" departDelay="0.80" arrival="205.00" arrivalLane="995559507#0_0" arrivalPos="4.81" arrivalSpeed="9.89" duration="134.00" routeLength="2660.02" waitingTime="3.00" waitingCount="1" stopTime="0.00" timeLoss="67.88" rerouteNo="0" devices="tripinfo_random_taxi_01236" vType="taxi" speedFactor="1.54" vaporized=""/>
    <tripinfo id="random_flexible_01227" depart="52.00" departLane="-440881469#11_0" departPos="0.20" departSpeed="0.00" departDelay="0.00" arrival="206.00" arrivalLane="-322629017#1_0" arrivalPos="87.07" arrivalSpeed="8.55" duration="154.00" routeLength="1621.26" waitingTime="0.00" waitingCount="0" stopTime="0.00" timeLoss="21.46" rerouteNo="0" devices="tripinfo_random_flexible_01227" vType="flexible" speedFactor="0.62" vaporized=""/>
    <tripinfo id="random_commuter_01282" depart="165.00" departLane="334124302#1_0" departPos="5.10" departSpeed="0.00" departDelay="0.00" arrival="213.00" arrivalLane="550008867#3_0" arrivalPos="53.08" arrivalSpeed="29.06" duration="48.00" routeLength="785.32" waitingTime="0.00" waitingCount="0" stopTime="0.00" timeLoss="18.09" rerouteNo="0" devices="tripinfo_random_commuter_01282" vType="commuter" speedFactor="1.06" vaporized=""/>
    <tripinfo id="random_commuter_01238" depart="68.00" departLane="334124302#7_0" departPos="5.10" departSpeed="0.00" departDelay="0.00" arrival="218.00" arrivalLane="697584892#2_0" arrivalPos="0.20" arrivalSpeed="12.63" duration="150.00" routeLength="2733.65" waitingTime="0.00" waitingCount="0" stopTime="0.00" timeLoss="46.92" rerouteNo="0" devices="tripinfo_random_commuter_01238" vType="commuter" speedFactor="1.04" vaporized=""/>
    <tripinfo id="random_taxi_01262" depart="120.00" departLane="248407681_0" departPos="5.10" departSpeed="0.00" departDelay="0.00" arrival="220.00" arrivalLane="450175546#1_0" arrivalPos="1.99" arrivalSpeed="19.44" duration="100.00" routeLength="1537.24" waitingTime="4.00" waitingCount="2" stopTime="0.00" timeLoss="50.35" rerouteNo="0" devices="tripinfo_random_taxi_01262" vType="taxi" speedFactor="1.25" vaporized=""/>
    <tripinfo id="random_commuter_01270" depart="144.00" departLane="448790073#1_0" departPos="5.10" departSpeed="0.00" departDelay="0.65" arrival="220.00" arrivalLane="444433525#1_0" arrivalPos="60.75" arrivalSpeed="17.97" duration="76.00" routeLength="1251.03" waitingTime="0.00" waitingCount="0" stopTime="0.00" timeLoss="29.00" rerouteNo="0" devices="tripinfo_random_commuter_01270" vType="commuter" speedFactor="1.04" vaporized=""/>
    <tripinfo id="random_taxi_01242" depart="79.00" departLane="194344114#2_0" departPos="5.10" departSpeed="0.00" departDelay="0.35" arrival="221.00" arrivalLane="734144754#1_0" arrivalPos="0.20" arrivalSpeed="15.34" duration="142.00" routeLength="2587.90" waitingTime="0.00" waitingCount="0" stopTime="0.00" timeLoss="39.82" rerouteNo="0" devices="tripinfo_random_taxi_01242" vType="taxi" speedFactor="1.11" vaporized=""/>
    <tripinfo id="random_flexible_01263" depart="123.00" departLane="248407681_0" departPos="5.10" departSpeed="0.00" departDelay="1.65" arrival="222.00" arrivalLane="450175546#1_0" arrivalPos="1.99" arrivalSpeed="20.05" duration="99.00" routeLength="1537.24" waitingTime="1.00" waitingCount="1" stopTime="0.00" timeLoss="53.08" rerouteNo="0" devices="tripinfo_random_flexible_01263" vType="flexible" speedFactor="1.36" vaporized=""/>
    <tripinfo id="random_flexible_01252" depart="92.00" departLane="462138645#10_0" departPos="0.20" departSpeed="0.00" departDelay="0.65" arrival="226.00" arrivalLane="444149842#2_0" arrivalPos="14.14" arrivalSpeed="10.36" duration="134.00" routeLength="1050.06" waitingTime="28.00" waitingCount="1" stopTime="0.00" timeLoss="51.06" rerouteNo="0" devices="tripinfo_random_flexible_01252" vType="flexible" speedFactor="0.56" vaporized=""/>
    <tripinfo id="random_commuter_01271" depart="149.00" departLane="1037695960#1_0" departPos="5.10" departSpeed="0.00" departDelay="0.10" arrival="229.00" arrivalLane="624720029#6_0" arrivalPos="0.20" arrivalSpeed="23.85" duration="80.00" routeLength="965.32" waitingTime="1.00" waitingCount="1" stopTime="0.00" timeLoss="26.04" rerouteNo="0" devices="tripinfo_random_commuter_01271" vType="commuter" speedFactor="0.88" vaporized=""/>
    <tripinfo id="random_commuter_01245" depart="82.00" departLane="194344114#2_0" departPos="5.10" departSpeed="0.00" departDelay="0.50" arrival="230.00" arrivalLane="734144754#1_0" arrivalPos="0.20" arrivalSpeed="16.03" duration="148.00" routeLength="2587.90" waitingTime="2.00" waitingCount="1" stopTime="0.00" timeLoss="51.22" rerouteNo="0" devices="tripinfo_random_commuter_01245" vType="commuter" speedFactor="1.18" vaporized=""/>
    <tripinfo id="random_commuter_01202" depart="9.00" departLane="427564710#6_0" departPos="5.10" departSpeed="0.00" departDelay="0.00" arrival="237.00" arrivalLane="-1024423911#0_0" arrivalPos="2.60" arrivalSpeed="14.42" duration="228.00" routeLength="3623.09" waitingTime="1.00" waitingCount="1" stopTime="0.00" timeLoss="66.76" rerouteNo="0" devices="tripinfo_random_commuter_01202" vType="commuter" speedFactor="1.09" vaporized=""/>
    <tripinfo id="random_flexible_01237" depart="67.00" departLane="481045536#2_0" departPos="5.10" departSpeed="0.00" departDelay="0.00" arrival="237.00" arrivalLane="-1024423910#0_0" arrivalPos="2.69" arrivalSpeed="13.07" duration="170.00" routeLength="2254.92" waitingTime="12.00" waitingCount="1" stopTime="0.00" timeLoss="60.42" rerouteNo="0" devices="tripinfo_random_flexible_01237" vType="flexible" speedFactor="0.98" vaporized=""/>
    <tripinfo id="random_commuter_01216" depart="22.00" departLane="731817125#1_0" departPos="5.10" departSpeed="0.00" departDelay="0.60" arrival="238.00" arrivalLane="444014976_0" arrivalPos="40.67" arrivalSpeed="18.01" duration="216.00" routeLength="3533.71" waitingTime="9.00" waitingCount="2" stopTime="0.00" timeLoss="83.50" rerouteNo="0" devices="tripinfo_random_commuter_01216" vType="commuter" speedFactor="1.09" vaporized=""/>
    <tripinfo id="random_flexible_01279" depart="162.00" departLane="1037695960#1_0" departPos="5.10" departSpeed="0.00" departDelay="0.70" arrival="243.00" arrivalLane="624720029#6_0" arrivalPos="0.20" arrivalSpeed="25.76" duration="81.00" routeLength="965.32" waitingTime="3.00" waitingCount="1" stopTime="0.00" timeLoss="30.93" rerouteNo="0" devices="tripinfo_random_flexible_01279" vType="flexible" speedFactor="0.95" vaporized=""/>
    <tripinfo id="random_taxi_01253" depart="93.00" departLane="-519662802#5_0" departPos="1.25" departSpeed="0.00" departDelay="0.30" arrival="249.00" arrivalLane="624720025#1_0" arrivalPos="27.87" arrivalSpeed="17.35" duration="156.00" routeLength="2584.83" waitingTime="0.00" waitingCount="0" stopTime="0.00" timeLoss="66.20" rerouteNo="0" devices="tripinfo_random_taxi_01253" vType="taxi" speedFactor="1.29" vaporized=""/>
    <tripinfo id="random_commuter_01226" depart="67.00" departLane="444418076#4_0" departPos="0.20" departSpeed="0.00" departDelay="0.95" arrival="260.00" arrivalLane="449880708#2_0" arrivalPos="171.33" arrivalSpeed="28.30" duration="193.00" routeLength="2983.01" waitingTime="26.00" waitingCount="4" stopTime="0.00" timeLoss="98.94" rerouteNo="0" devices="tripinfo_random_commuter_01226" vType="commuter" speedFactor="1.34" vaporized=""/>
    <tripinfo id="random_flexible_01211" depart="23.00" departLane="79174943#0_0" departPos="5.05" departSpeed="0.00" departDelay="0.25" arrival="261.00" arrivalLane="462138645#12_0" arrivalPos="6.87" arrivalSpeed="24.34" duration="238.00" routeLength="3491.81" waitingTime="48.00" waitingCount="3" stopTime="0.00" timeLoss="136.05" rerouteNo="0" devices="tripinfo_random_flexible_01211" vType="flexible" speedFactor="1.37" vaporized=""/>
    <tripinfo id="random_flexible_01273" depart="146.00" departLane="697671217_0" departPos="5.10" departSpeed="0.00" departDelay="0.00" arrival="261.00" arrivalLane="427564710#4_0" arrivalPos="35.72" arrivalSpeed="12.28" duration="115.00" routeLength="1845.36" waitingTime="0.00" waitingCount="0" stopTime="0.00" timeLoss="21.14" rerouteNo="0" devices="tripinfo_random_flexible_01273" vType="flexible" speedFactor="0.92" vaporized=""/>
    <tripinfo id="random_commuter_01269" depart="145.00" departLane="528055205#0_0" departPos="5.10" departSpeed="0.00" departDelay="0.20" arrival="262.00" arrivalLane="442084733#1_0" arrivalPos="2.59" arrivalSpeed="28.00" duration="117.00" routeLength="1509.49" waitingTime="8.00" waitingCount="1" stopTime="0.00" timeLoss="56.17" rerouteNo="0" devices="tripinfo_random_commuter_01269" vType="commuter" speedFactor="1.05" vaporized=""/>
    <tripinfo id="random_taxi_01312" depart="226.00" departLane="1172199237#2_0" departPos="5.10" departSpeed="0.00" departDelay="0.10" arrival="271.00" arrivalLane="440897028#2_0" arrivalPos="7.13" arrivalSpeed="15.83" duration="45.00" routeLength="404.90" waitingTime="11.00" waitingCount="1" stopTime="0.00" timeLoss="33.83" rerouteNo="0" devices="tripinfo_random_taxi_01312" vType="taxi" speedFactor="1.53" vaporized=""/>
    <tripinfo id="random_flexible_01329" depart="234.00" departLane="995559506_0" departPos="0.20" departSpeed="0.00" departDelay="0.00" arrival="273.00" arrivalLane="450175546#1_0" arrivalPos="1.99" arrivalSpeed="19.39" duration="39.00" routeLength="719.96" waitingTime="0.00" waitingCount="0" stopTime="0.00" timeLoss="14.51" rerouteNo="0" devices="tripinfo_random_flexible_01329" vType="flexible" speedFactor="1.10" vaporized=""/>
    <tripinfo id="random_flexible_01320" depart="221.00" departLane="448314188_0" departPos="5.10" departSpeed="0.00" departDelay="0.15" arrival="282.00" arrivalLane="987053826#0_0" arrivalPos="1.32" arrivalSpeed="7.74" duration="61.00" routeLength="965.16" waitingTime="2.00" waitingCount="1" stopTime="0.00" timeLoss="32.66" rerouteNo="0" devices="tripinfo_random_flexible_01320" vType="flexible" speedFactor="1.30" vaporized=""/>
    <tripinfo id="random_taxi_01285" depart="180.00" departLane="-440881469#11_0" departPos="0.20" departSpeed="0.00" departDelay="0.45" arrival="283.00" arrivalLane="-322629017#1_0" arrivalPos="87.07" arrivalSpeed="14.43" duration="103.00" routeLength="1621.26" waitingTime="0.00" waitingCount="0" stopTime="0.00" timeLoss="25.04" rerouteNo="0" devices="tripinfo_random_taxi_01285" vType="taxi" speedFactor="1.05" vaporized=""/>
    <tripinfo id="random_commuter_01203" depart="3.00" departLane="458696110#1_0" departPos="5.10" departSpeed="0.00" departDelay="0.00" arrival="285.00" arrivalLane="-543462683#7_0" arrivalPos="0.20" arrivalSpeed="5.90" duration="282.00" routeLength="4510.18" waitingTime="0.00" waitingCount="0" stopTime="0.00" timeLoss="57.45" rerouteNo="0" devices="tripinfo_random_commuter_01203" vType="commuter" speedFactor="0.88" vaporized=""/>
    <tripinfo id="random_commuter_01300" depart="196.00" departLane="-993462493#0_0" departPos="1.46" departSpeed="0.00" departDelay="0.60" arrival="286.00" arrivalLane="-359990752#3_0" arrivalPos="0.36" arrivalSpeed="7.11" duration="90.00" routeLength="1651.40" waitingTime="0.00" waitingCount="0" stopTime="0.00" timeLoss="29.27" rerouteNo="0" devices="tripinfo_random_commuter_01300" vType="commuter" speedFactor="1.11" vaporized=""/>
    <tripinfo id="random_commuter_01293" depart="188.00" departLane="462138645#10_0" departPos="0.20" departSpeed="0.00" departDelay="0.30" arrival="288.00" arrivalLane="444149842#2_0" arrivalPos="14.14" arrivalSpeed="12.14" duration="100.00" routeLength="1050.06" waitingTime="12.00" waitingCount="1" stopTime="0.00" timeLoss="57.42" rerouteNo="0" devices="tripinfo_random_commuter_01293" vType="commuter" speedFactor="1.09" vaporized=""/>
    <tripinfo id="random_taxi_01295" depart="191.00" departLane="462138645#10_0" departPos="0.20" departSpeed="0.00" departDelay="2.00" arrival="291.00" arrivalLane="444149842#2_0" arrivalPos="14.14" arrivalSpeed="13.91" duration="100.00" routeLength="1050.06" waitingTime="11.00" waitingCount="1" stopTime="0.00" timeLoss="54.80" rerouteNo="0" devices="tripinfo_random_taxi_01295" vType="taxi" speedFactor="1.02" vaporized=""/>
    <tripinfo id="random_commuter_01339" depart="251.00" departLane="119029072#0_0" departPos="0.20" departSpeed="0.00" departDelay="0.00" arrival="293.00" arrivalLane="29141670#2_0" arrivalPos="2.84" arrivalSpeed="22.05" duration="42.00" routeLength="749.42" waitingTime="0.00" waitingCount="0" stopTime="0.00" timeLoss="11.08" rerouteNo="0" devices="tripinfo_random_commuter_01339" vType="commuter" speedFactor="0.87" vaporized=""/>
    <tripinfo id="random_flexible_01309" depart="204.00" departLane="462138645#10_0" departPos="0.20" departSpeed="0.00" departDelay="0.00" arrival="294.00" arrivalLane="444149842#2_0" arrivalPos="14.14" arrivalSpeed="13.53" duration="90.00" routeLength="1050.06" waitingTime="0.00" waitingCount="0" stopTime="0.00" timeLoss="38.36" rerouteNo="0" devices="tripinfo_random_flexible_01309" vType="flexible" speedFactor="0.90" vaporized=""/>
    <tripinfo id="random_flexible_01251" depart="92.00" departLane="29141670#2_0" departPos="2.84" departSpeed="0.00" departDelay="0.95" arrival="297.00" arrivalLane="449785730_0" arrivalPos="235.75" arrivalSpeed="12.23" duration="205.00" routeLength="2103.72" waitingTime="10.00" waitingCount="2" stopTime="0.00" timeLoss="47.54" rerouteNo="0" devices="tripinfo_random_flexible_01251" vType="flexible" speedFactor="0.55" vaporized=""/>
    <tripinfo id="random_flexible_01342" depart="259.00" departLane="119029072#0_0" departPos="0.20" departSpeed="0.00" departDelay="0.00" arrival="298.00" arrivalLane="29141670#2_0" arrivalPos="2.84" arrivalSpeed="24.39" duration="39.00" routeLength="749.42" waitingTime="0.00" waitingCount="0" stopTime="0.00" timeLoss="11.40" rerouteNo="0" devices="tripinfo_random_flexible_01342" vType="flexible" speedFactor="1.01" vaporized=""/>
    <tripinfo id="random_taxi_01345" depart="270.00" departLane="119029072#0_0" departPos="0.20" departSpeed="0.00" departDelay="0.00" arrival="306.00" arrivalLane="29141670#2_0" arrivalPos="2.84" arrivalSpeed="23.64" duration="36.00" routeLength="749.42" waitingTime="0.00" waitingCount="0" stopTime="0.00" timeLoss="13.76" rerouteNo="0" devices="tripinfo_random_taxi_01345" vType="taxi" speedFactor="1.21" vaporized=""/>
    <tripinfo id="random_commuter_01221" depart="38.00" departLane="-80912586#1_0" departPos="5.10" departSpeed="0.00" departDelay="0.50" arrival="310.00" arrivalLane="444014977#0_0" arrivalPos="40.37" arrivalSpeed="18.13" duration="272.00" routeLength="5127.33" waitingTime="0.00" waitingCount="0" stopTime="0.00" timeLoss="76.66" rerouteNo="0" devices="tripinfo_random_commuter_01221" vType="commuter" speedFactor="1.04" vaporized=""/>
    <tripinfo id="random_flexible_01256" depart="97.00" departLane="-545840833#1_0" departPos="5.10" departSpeed="0.00" departDelay="0.00" arrival="311.00" arrivalLane="444014977#2_0" arrivalPos="69.34" arrivalSpeed="26.55" duration="214.00" routeLength="3719.17" waitingTime="2.00" waitingCount="1" stopTime="0.00" timeLoss="58.06" rerouteNo="0" devices="tripinfo_random_flexible_01256" vType="flexible" speedFactor="0.99" vaporized=""/>
    <tripinfo id="random_taxi_01272" depart="155.00" departLane="45838048#8_0" departPos="1.41" departSpeed="0.00" departDelay="0.55" arrival="313.00" arrivalLane="1024423910#2_0" arrivalPos="233.07" arrivalSpeed="15.95" duration="158.00" routeLength="2396.48" waitingTime="0.00" waitingCount="0" stopTime="0.00" timeLoss="59.87" rerouteNo="0" devices="tripinfo_random_taxi_01272" vType="taxi" speedFactor="1.17" vaporized=""/>
    <tripinfo id="random_taxi_01275" depart="178.00" departLane="462131778#0_2" departPos="5.10" departSpeed="0.00" departDelay="0.95" arrival="313.00" arrivalLane="450614679_0" arrivalPos="13.51" arrivalSpeed="8.28" duration="135.00" routeLength="1589.17" waitingTime="53.00" waitingCount="2" stopTime="0.00" timeLoss="81.75" rerouteNo="0" devices="tripinfo_random_taxi_01275" vType="taxi" speedFactor="1.10" vaporized=""/>